65
 i =        2, time =        1.000, E =     -1121.1978425502
  O        10.6027896944        9.4463337201        5.6634246873
  O         6.0144515771        5.4261964209        2.8911139572
  O         3.2324501020        9.8939960347        1.1473277597
  O         4.7897984184        7.1808258527        1.1272792584
  O         6.2923083559        3.9735763058       -0.0449734103
  O         9.7519904578        7.8003175290       -2.0765043120
  O         7.5283004444        8.7468288091        8.3994120792
  O         9.4711647997        6.1187748975        0.7186124116
  O         7.8099110182       -2.2892029161        5.0047458802
  O         7.8785984879       12.9639644178        7.8949728588
  O         3.3526672169        8.2752508355        3.5678043848
  O         5.3765033841       15.2461014451        7.9454358722
  O        -3.0200838736       -0.2484504045       15.1540249520
  O        10.6532759875       13.6776619453        4.3927864839
  O         2.6173346207        6.4191003090       11.7773963184
  O         7.6015310138       10.6536895215       -1.3949487849
  O        17.6403721316       10.2404763688        2.5200186645
  O         1.8261487404       -0.5475939556       -3.0025252560
  O         6.2495671360        1.2520815496       10.2218096303
  O        -0.9440979526       14.0613084100       -5.0400881346
  O        13.5966942198       15.4730881854        6.2702801679
  O         3.9332536742       13.1300358514        0.3521592216
  O        12.9002642691       -2.6135074142        4.1773726150
  O         7.2516118885       11.8775753168        1.0649363479
  O         3.8669813377        3.6747102174        0.3447645170
  O         5.6053153799        7.7396195545        5.0385138938
  O        -0.0675653780       18.3018197196        8.5392425971
  O        13.2768169209       20.3985575232       10.4920489073
  O         7.9692564093       16.0414136290       -3.1092336687
  O         4.1850469606        3.5681105686        4.4474615741
  O        13.0131331249       -0.8773110092        6.3519131510
  O         9.8033272649        7.1416468604        7.0395245664
  O        11.8598883059        3.4509779133        3.0615609930
  O         8.5180943870        6.4073038477        3.6519704243
  O         3.8419601723        5.5280997293        6.9832695164
  O        -1.7352069213        4.8541712131       -1.5118559299
  O         7.6731999815        8.3995798594        1.8002854388
  O        16.3898423554       10.4960120309        5.1616531511
  O         6.6706529359       13.4087977361        4.5998616603
  O        10.1282923876       -2.3532019689        0.4844902003
  O        14.9794456390        5.0714758671        2.5088801746
  O        14.0930451582       13.8982451508        2.6620091035
  O         4.8003330092        8.9157841076       10.6405630753
  O        10.2547069757       -0.6860456607       10.4343297591
  O         0.9186023380        4.2926977378        0.1236516500
  O         7.0026607619        6.1583272103        7.4802899648
  O         1.6874736993        1.6658162421       -1.5477932140
  O         4.3110038341        8.1635472705        7.7829186003
  O        13.2248648365       10.6735420461       -0.3195655471
  O         1.6354397014       18.6151412580        5.5878139541
  O         7.1715147796       14.6349294463        1.7454087663
  O        12.2737888330       11.3495014529        2.3107915378
  O        -0.4428653768       -5.8832335177        3.7402571346
  O         2.9893738361        4.0553161755        9.9930845997
  O         7.0281650133        3.6733427663        5.8791913474
  O         9.6640401966       10.9826898769        7.6733383087
  O         4.3150992220       -0.9457709368        9.4501402222
  O         1.4589103721        8.6593909870       -4.6306599811
  O        15.8307339498       13.8602663963        6.4882880104
  O        11.6945255140        7.7299974849       13.4432636021
  O         9.8872500955        3.2378812823        0.9484184427
  O         6.1132598132       10.8613276807        7.1754013308
  O         7.1170235203        6.5344671686       11.2923187039
  O        10.0813048295        4.3969204066        5.8085889512
  O        -1.1969210736        2.1910618507       -2.1205818315
