131
 i =        4, time =        2.000, E =     -1121.1908639455
  H        11.1188382367        9.3908374035        4.8079350572
  H        10.4199064072        8.5464444451        6.0256744788
  H         5.9298563822        4.4768185028        3.2035935427
  H         6.9299463160        5.6622782770        3.2160626423
  H         2.5147695987       10.2267217379        0.5760326332
  H         2.6626843689        9.3010182385        1.6413539132
  H         5.2600930118        6.5196226538        1.6108262127
  H         4.7720200404        7.8664653018        1.8490291614
  H         6.6697411693        4.8876848124       -0.1328813764
  H         6.7199218001        3.3310000706        0.6049442376
  H         9.1224056948        8.2723125348       -2.6240273814
  H         9.7561815572        8.3801899351       -1.2747360313
  H         6.8338465591        9.1881392507       -3.2567334592
  H         7.0713316345        7.9213450724        8.1639028233
  H         9.0927333943        5.9669550051        1.6151423844
  H         9.5436059525        5.1931812330        0.4169062016
  H         8.7248752399       -2.4252090578        5.2205303880
  H         7.4130628930       -2.3072391734        5.9077584925
  H         8.2325506073       13.8649777392        8.0494876218
  H         8.6316723255       12.4350301911        7.6109833868
  H         4.1036908729        8.5406338728        4.1790008911
  H         3.0015221978        7.5955543683        4.1543652342
  H         4.8999100866       16.0538665909        8.1299216838
  H         5.9434167450       15.4796777720        7.2126280900
  H        -3.6490104184       -0.4206362852       14.3747055108
  H        -3.3889501770       -0.7042771543       15.9505454762
  H         9.9615364417       13.0823869837        3.9845402405
  H        10.5311292627       13.6761613938        5.3463490939
  H         2.0577312887        5.6916162347       12.2092193392
  H         3.2936259132        6.5851806755        0.2644105908
  H         8.4831629125       10.9939086427       10.4457321877
  H         7.8861631680        9.8894840856       -0.9029837861
  H        16.8354977316       10.3953320660        1.9133692333
  H        17.2702661073       10.3927584866        3.4036835746
  H         2.8615610640       -0.6614189737       -2.9412032858
  H         1.6357166507       -0.6086944393       -3.9556225434
  H         6.9279841952        0.9533572073        9.5296091570
  H         5.8277439142        1.8527237878        9.5850313590
  H        -1.1321156676       14.1094637148       -4.0627500056
  H        -0.0058041107       14.3803089747       -5.1110355175
  H        14.3898913576       14.9462500420        6.4635903173
  H        13.8074203447       16.3893208342        6.4972180884
  H         4.8230992587       13.1793211275       -0.1018946059
  H         3.1820323901       13.3185284402       -0.2083164394
  H        12.5831914672       -2.0195498400        3.4515199361
  H        13.8584820556       -2.7981066348        4.0461410111
  H         6.6102645312       11.3040300304        1.4748329407
  H         7.3524071269       11.4051576567        0.1620361103
  H         5.2324939741        3.8711760527        0.0810228640
  H         3.5045021572        4.2380135408        1.0633226001
  H         6.5529122771        7.7001053462        5.1700467342
  H         5.4521063943        6.8618012827        4.5683277512
  H        -0.7445799680       18.8353750849        8.0580678836
  H         0.5548839547       18.2937253935        7.8305088899
  H        13.9750834914       19.8691564649       10.8191546872
  H        12.6861708855       19.7700768170       10.0520294339
  H         7.1794978673       15.8012415420       -2.5687279410
  H         8.6197122080       16.4508502001       -2.4856659848
  H         4.4300737694        3.7705292183        5.3863691875
  H         3.4078368675        2.9713052179        4.5450656853
  H        12.9208149898       -1.3739983157        5.4718609386
  H        12.2190350620       -0.2680168393        6.3381936936
  H         9.7580767474        6.3608475181        6.4389130395
  H         8.8810058278        7.4094513628        7.1615632536
  H        12.7459395456        3.0117011947        3.0222755332
  H        11.2359005623        2.8930567919        3.6057347982
  H         9.4327851722        6.0774616940        3.5066663793
  H         8.4957818156        7.2191143331        3.1155225600
  H         3.0519103526        5.5747446838        6.4195342894
  H         4.1056372638        6.4928749629        7.2302346321
  H        -1.3481001159        4.3915030168       -2.2147157657
  H        -1.8757828297        5.7900317328       -1.8701242224
  H         7.1002300236        8.9929709792        2.3696382304
  H         7.1636427106        7.6765586292        1.3629481011
  H        15.5410122565       10.5881992521        5.5727282823
  H        16.9973852906       10.4265633917        5.9701720631
  H         5.6683335457       13.2223804238        4.5726291124
  H         7.0643012022       13.0783706491        3.7674723735
  H        10.8852350906       -2.8824477540        0.8539556431
  H         9.4372078946       -2.6144881389        1.1017934131
  H        15.1906832960        6.0093958685        2.5144420914
  H        15.3993139218        4.6710781047        3.3234148084
  H        13.4646189105       13.3291737195        2.2227252149
  H        14.9657465618       13.7155089110        2.2387933985
  H         4.5262315319        8.0867765709       10.0588664354
  H         4.5509454202        8.6144131264       11.5144260759
  H        10.4395714775       -1.2386217633        9.6410511197
  H        10.3591452115       -1.3142479099       11.1952618426
  H         0.2775960456        4.5328181514       -0.5607263784
  H         0.4289223702        4.2405939372       13.1180245755
  H         7.2928607548        5.3471760491        8.0079707958
  H         6.3198816461        5.8802538437        6.8851005567
  H         1.9807969297        1.0876371889       -2.2936353769
  H         2.1664614186        2.5396115303       -1.7140879553
  H         3.5245447966        8.6533177170        7.4266180958
  H         4.8876201351        8.2455184876        6.9432409146
  H        13.0933251004        9.8530949428       -0.9008144395
  H        13.2667561215       11.4192928854       -0.9398016653
  H         1.5173514485       19.4289355108        6.0732451347
  H         0.8399513210       18.5474702440        4.9993254730
  H         7.0715416296       13.7150949153        1.4383655426
  H         8.1457748423       14.6928512008        1.6533955375
  H        11.2729036460       11.4836592586        2.2607434155
  H        12.5224890324       11.0089135323        1.4358544278
  H        -0.3299964873       -5.3464918764        2.8800591053
  H        -0.2768064530       -6.8798715044        3.4580601333
  H         2.6989279513        4.5893110103        9.2564451627
  H         3.1297072037        4.7025889559       10.7496056327
  H         7.9806594161        3.8996445099        5.7763868827
  H         6.9524162594        2.7519369350        5.4539605596
  H        10.1300284383       10.6468477796        6.8314959069
  H         8.9953708502       10.2583971055        7.8199989306
  H         4.6309724359       -0.1534729420        9.9170343389
  H         4.4078853830       -1.7642602338        9.9969250894
  H         1.5116180776        8.5885556175       -3.6238560894
  H         0.9551038520        9.5035881041       -4.7096508615
  H        16.4299197069       14.2934289118        7.1847251066
  H        15.5698596198       12.9979907086        6.8149366552
  H        12.3484728662        7.4979140310       12.7579959765
  H        10.8811972510        7.2204288563       13.1669851572
  H        10.6219034015        3.4959230669        1.5012540060
  H        10.2240745906        2.6729840520        0.2227224247
  H         6.4159447477       11.7515087008        7.0766005367
  H         5.6938303693       10.9060578475        8.0967220550
  H         6.5429678819        7.2253375480       11.1707181046
  H         7.8583921427        6.9452944067       10.7678587289
  H        10.6103902554        4.4347867762        5.0319665446
  H        10.4132298552        3.6784839362        6.3679795213
  H        -1.6066336281        1.2896658957       -2.0250121084
  H        -0.2747695830        2.0721629405       -1.9385628026
  H         3.8313219936        2.7352514717        0.6485216115
