131
 i =        0, time =        0.000, E =     -1121.2013273676
  H        11.0731207896        9.4347968624        4.7877057049
  H        10.4300353723        8.5964318497        6.0550577382
  H         5.8659716211        4.5322103955        3.1756406262
  H         6.9016426388        5.6890454536        3.1677945315
  H         2.5054759405       10.2352525890        0.5553747484
  H         2.7057007755        9.2939343535        1.6428599354
  H         5.2580725500        6.4771020007        1.6223233053
  H         4.7562687277        7.8764268384        1.8149520618
  H         6.6603718270        4.8585491049       -0.0944625760
  H         6.7131444348        3.2718683639        0.5829986305
  H         9.0559877145        8.2574752133       -2.6267846783
  H         9.7595567252        8.3665395712       -1.2989551299
  H         6.8155118819        9.1722716077       -3.2596881067
  H         7.0439323552        7.9346586826        8.0978512591
  H         9.1262119492        5.9597122423        1.6539699805
  H         9.6306411176        5.2112288705        0.4195930062
  H         8.7438603153       -2.4476528387        5.2429805479
  H         7.3988871570       -2.2638246154        5.9010616799
  H         8.2231393248       13.8560359301        8.0506463191
  H         8.6600987964       12.4501880580        7.6235997429
  H         4.1083745922        8.4891750359        4.1579817934
  H         2.9396325645        7.5576648814        4.1210563483
  H         4.8898915140       16.0919787874        8.1525587930
  H         5.9482420624       15.5077905872        7.2386259337
  H        -3.5838886159       -0.4492870863       14.3914627636
  H        -3.3904541045       -0.6976450178       15.9764214197
  H        10.0123522072       13.0818153735        3.9813213151
  H        10.5533725780       13.7128651330        5.3359758910
  H         2.0726687190        5.6949418053       12.2365135585
  H         3.3276814979        6.6309847502        0.2504120095
  H         8.5011623684       11.0077270865       10.4754857311
  H         7.8736577428        9.8450384533       -0.9025384918
  H        16.8934169288       10.4100707303        1.9276598129
  H        17.2554303118       10.3903485276        3.3836793661
  H         2.8443942922       -0.6183653236       -2.9822385525
  H         1.6387459323       -0.6127189177       -3.9667353047
  H         7.0002095454        0.9650059037        9.5581283976
  H         5.7969118661        1.8490796360        9.6034826095
  H        -1.1888952909       14.1241258647       -4.1291216854
  H        -0.0033646858       14.3948992776       -5.0962230201
  H        14.3999190222       14.9262505491        6.4260087857
  H        13.8132416049       16.3739928705        6.5072312851
  H         4.8251556758       13.2103156027       -0.1357181767
  H         3.1886777944       13.3464715534       -0.2295508680
  H        12.5982395608       -2.0494290165        3.4155318469
  H        13.8359953736       -2.8024489463        4.0477841927
  H         6.5738828979       11.2875735136        1.5493952702
  H         7.3553421564       11.4227896917        0.1760553231
  H         5.2202042765        3.9266331780        0.0533689250
  H         3.5396180963        4.2548488772        1.0637580822
  H         6.5710758818        7.7552111806        5.1844445143
  H         5.4699372621        6.8353828978        4.6044650042
  H        -0.7490184146       18.8490266156        8.0850566000
  H         0.5764527256       18.2700168540        7.7475302119
  H        14.0285282964       19.8700140481       10.8412213604
  H        12.7028194105       19.7240702316       10.0189871400
  H         7.2109218452       15.8158211285       -2.5494527936
  H         8.6231249421       16.4023227203       -2.4812656481
  H         4.4056752929        3.7988171435        5.3832345667
  H         3.3958317195        2.9401302718        4.5550544735
  H        12.9459163656       -1.3722351310        5.5045161142
  H        12.1976248722       -0.2444272701        6.4069085141
  H         9.7722394646        6.3398733343        6.4666757782
  H         8.8502667577        7.4146925285        7.1716835582
  H        12.7126954712        3.0021097080        3.0678294010
  H        11.2232390438        2.8790237725        3.6129813902
  H         9.4259876606        6.1104865228        3.4895313794
  H         8.4651807957        7.2337789802        3.1308372566
  H         3.0600270057        5.6058625350        6.4483363852
  H         4.0225839528        6.4823046214        7.2300177016
  H        -1.2939839247        4.3814476502       -2.2578487629
  H        -1.8248534935        5.7621472724       -1.8701631840
  H         7.1044740667        9.0121384169        2.3616375615
  H         7.1329388121        7.7126025512        1.3788709526
  H        15.5110707608       10.5393824680        5.5465348872
  H        16.9798054837       10.4261559924        5.9425438811
  H         5.7341496476       13.1865450374        4.6503985700
  H         7.0675088072       13.1150424857        3.7866500988
  H        10.8600203863       -2.9123010177        0.8524423027
  H         9.4072847134       -2.5831624360        1.0866937128
  H        15.1731466719        6.0213900494        2.4894162038
  H        15.3975650458        4.6955588435        3.3409488942
  H        13.4413918883       13.2692751878        2.2389056150
  H        14.9384749360       13.7331484348        2.1959859520
  H         4.5485798485        8.0895277647       10.0738752275
  H         4.5208010591        8.6623030574       11.5321820687
  H        10.4573608411       -1.2117689992        9.6101673465
  H        10.3595678402       -1.3079191041       11.1962772043
  H         0.2217309373        4.4975449388       -0.5214927759
  H         0.4254203457        4.2341889253       13.1413624226
  H         7.3309706816        5.3535932517        7.9865513637
  H         6.3115020479        5.8378737355        6.8895435671
  H         2.0029133787        1.0768716982       -2.3172177636
  H         2.1642761215        2.5514158910       -1.7958631231
  H         3.5722228993        8.6237078765        7.4413047103
  H         4.8648021715        8.2590408425        6.9602334217
  H        13.1453704297        9.8624323203       -0.8815498958
  H        13.2656278822       11.4089510730       -0.9435899448
  H         1.5780478624       19.4220310631        6.0772316386
  H         0.8397689278       18.5674353235        5.0108310884
  H         7.0422198937       13.6596929592        1.5075076820
  H         8.1696939544       14.7206345911        1.6594655705
  H        11.2860917331       11.5356240684        2.2793745845
  H        12.5444826982       11.0769022277        1.3962156699
  H        -0.3325209014       -5.3940652819        2.8988289805
  H        -0.2789309148       -6.8005531253        3.4659456645
  H         2.6825057224        4.6231024643        9.2535758012
  H         3.1554404203        4.6799564972       10.7182794049
  H         7.9789674516        3.8688072442        5.7989504308
  H         6.9995522692        2.7403193029        5.4879285016
  H        10.1834826004       10.6822186116        6.8591489460
  H         8.9690613635       10.2363456229        7.8211778825
  H         4.6424999658       -0.1392381750        9.9607566548
  H         4.3925562179       -1.7458261882       10.0286261684
  H         1.5642032781        8.5877994733       -3.6524216376
  H         0.9459996308        9.5469674522       -4.7383164438
  H        16.3907779214       14.2738799197        7.2294799255
  H        15.5021401887       12.9904241786        6.7686143535
  H        12.3479399670        7.4574928842       12.7492094166
  H        10.8961285510        7.1958400076       13.1562899946
  H        10.6182181728        3.4740299888        1.5022945216
  H        10.2092139788        2.6651142379        0.2357084141
  H         6.4524112985       11.7322370969        7.0996585049
  H         5.7189132062       10.8664108618        8.1112002228
  H         6.4390938390        7.2509945328       11.1719692825
  H         7.7937666650        6.9340188712       10.7605369101
  H        10.6102470202        4.4315256359        4.9991050920
  H        10.4252877746        3.6289978303        6.3823970817
  H        -1.5851447171        1.2689317605       -2.0457183011
  H        -0.1974776064        2.0686433753       -1.9977648832
  H         3.8448988828        2.7226093334        0.6987634803
