131
 i =        2, time =        1.000, E =     -1121.1978425502
  H        11.0975616012        9.4156961280        4.7905764883
  H        10.4240458875        8.5770498047        6.0400627390
  H         5.8985559343        4.5043089607        3.1895595426
  H         6.9146244163        5.6764048951        3.1918712314
  H         2.5086821735       10.2267986278        0.5688872469
  H         2.6853373175        9.3038303564        1.6347830984
  H         5.2562192506        6.5057932285        1.6138626583
  H         4.7664512202        7.8713075538        1.8345911507
  H         6.6635801716        4.8702152822       -0.1138260995
  H         6.7133946512        3.3020568450        0.5888216905
  H         9.0897607978        8.2656848718       -2.6225073175
  H         9.7559316418        8.3741488202       -1.2886771793
  H         6.8255396240        9.1760733838       -3.2608126220
  H         7.0560954759        7.9309728949        8.1321489392
  H         9.1084375686        5.9616090614        1.6405091553
  H         9.5855007129        5.2046504911        0.4206089637
  H         8.7282471256       -2.4350173792        5.2318561466
  H         7.4068140038       -2.2873690717        5.9069018117
  H         8.2285882747       13.8595140773        8.0509176290
  H         8.6421109919       12.4468428490        7.6175013912
  H         4.1069615248        8.5127147258        4.1717799901
  H         2.9730105876        7.5778192768        4.1388562845
  H         4.8959619887       16.0732248428        8.1406950387
  H         5.9359669924       15.4912689673        7.2343967604
  H        -3.6157381522       -0.4356290644       14.3822349815
  H        -3.3898547309       -0.7017272344       15.9693177724
  H         9.9863828427       13.0807868934        3.9832033022
  H        10.5432131763       13.6945869706        5.3349179080
  H         2.0642902542        5.6901972282       12.2263761608
  H         3.3041265313        6.6052757502        0.2524021312
  H         8.4937911224       10.9994909400       10.4602051975
  H         7.8804488340        9.8693744186       -0.9032063651
  H        16.8643066416       10.4045501162        1.9196079842
  H        17.2637360208       10.3904439859        3.3887676607
  H         2.8588167329       -0.6378985392       -2.9620932954
  H         1.6383838207       -0.6108754417       -3.9619933773
  H         6.9683296845        0.9600273793        9.5369949535
  H         5.8153066872        1.8478765839        9.5943118287
  H        -1.1601249393       14.1165782815       -4.0996864761
  H        -0.0014966456       14.3873438080       -5.1029323038
  H        14.3925001492       14.9375243453        6.4443734207
  H        13.8104201533       16.3799742363        6.5018394398
  H         4.8329943064       13.1956044985       -0.1202557335
  H         3.1889530349       13.3320202274       -0.2119748581
  H        12.5880464620       -2.0356726527        3.4350416223
  H        13.8463399468       -2.7996542081        4.0488702389
  H         6.5929284873       11.2952962143        1.5097800658
  H         7.3536429881       11.4096863725        0.1672413857
  H         5.2287206694        3.8974544327        0.0658961924
  H         3.5235792347        4.2452656771        1.0595585048
  H         6.5590433575        7.7258516900        5.1775443873
  H         5.4604885583        6.8427722952        4.5832624942
  H        -0.7446160805       18.8427171855        8.0685103872
  H         0.5645963415       18.2831285677        7.7866757844
  H        13.9966026732       19.8745303762       10.8264092709
  H        12.6943624457       19.7463414903       10.0351289801
  H         7.1937419178       15.8084540935       -2.5585726421
  H         8.6215945315       16.4277715979       -2.4835895483
  H         4.4187020914        3.7849544668        5.3894890202
  H         3.3966568362        2.9528195111        4.5503266145
  H        12.9334831491       -1.3734316109        5.4863553677
  H        12.2001911605       -0.2507525485        6.3729008670
  H         9.7656395758        6.3502704388        6.4515612398
  H         8.8622726078        7.4147359338        7.1670466497
  H        12.7283827413        3.0080087079        3.0439962476
  H        11.2257311349        2.8876793596        3.6109445892
  H         9.4281745153        6.0940638555        3.4952295931
  H         8.4818306742        7.2231413638        3.1239057961
  H         3.0591715584        5.5883871105        6.4373755286
  H         4.0669575254        6.4937478558        7.2308332762
  H        -1.3232926461        4.3897242480       -2.2322998725
  H        -1.8514214916        5.7794966174       -1.8723146223
  H         7.1018572881        9.0076514543        2.3703240222
  H         7.1489103225        7.6915709641        1.3701623704
  H        15.5322088187       10.5626579383        5.5586833463
  H        16.9882201524       10.4241061893        5.9589751833
  H         5.6962345081       13.2039222236        4.6127998925
  H         7.0666288198       13.0969478778        3.7785468175
  H        10.8723661957       -2.8981902949        0.8551662482
  H         9.4266093361       -2.5986840539        1.0930794459
  H        15.1807657347        6.0139407489        2.5008721037
  H        15.3987845357        4.6812407368        3.3347889311
  H        13.4521135730       13.3005105075        2.2299678281
  H        14.9554928701       13.7245508667        2.2162286976
  H         4.5344609418        8.0762441114       10.0604819920
  H         4.5374468198        8.6381861191       11.5180412267
  H        10.4486845366       -1.2283606021        9.6238804270
  H        10.3585183287       -1.3130682652       11.1959456175
  H         0.2522019182        4.5150285577       -0.5402638458
  H         0.4247400174        4.2373391630       13.1332894217
  H         7.3131955159        5.3470831130        8.0000816849
  H         6.3188369514        5.8616338857        6.8903290858
  H         1.9958711787        1.0817781186       -2.3084669125
  H         2.1693593338        2.5496913929       -1.7574773979
  H         3.5556796448        8.6362011133        7.4327335430
  H         4.8768479943        8.2540429433        6.9461234108
  H        13.1191757781        9.8547823800       -0.8926246305
  H        13.2660029204       11.4127666819       -0.9397728712
  H         1.5492773590       19.4172278814        6.0700849624
  H         0.8401358954       18.5571967977        5.0063215207
  H         7.0577345215       13.6877878970        1.4729571354
  H         8.1581988594       14.7050451574        1.6556414549
  H        11.2725682406       11.5107766599        2.2701703329
  H        12.5343761621       11.0427424458        1.4175697578
  H        -0.3317857195       -5.3693044052        2.8860138612
  H        -0.2778078854       -6.8439384341        3.4610973895
  H         2.6910904527        4.6055606203        9.2562150759
  H         3.1438621001        4.6936821262       10.7364901818
  H         7.9801058097        3.8831314764        5.7865286977
  H         6.9762309397        2.7411637001        5.4702813903
  H        10.1594541232       10.6640094162        6.8401641464
  H         8.9770076379       10.2410796667        7.8222107522
  H         4.6351595155       -0.1422024401        9.9395185627
  H         4.3995566861       -1.7547856062       10.0110255544
  H         1.5384166809        8.5883992979       -3.6339368360
  H         0.9472260027        9.5305192655       -4.7225279671
  H        16.4119352826       14.2862711371        7.2098894917
  H        15.5362292668       12.9958777044        6.7907852759
  H        12.3485695329        7.4765459638       12.7523351474
  H        10.8881363580        7.2087922692       13.1614535018
  H        10.6126263989        3.4853543541        1.4963086951
  H        10.2154798461        2.6678056458        0.2295106995
  H         6.4292550106       11.7301656500        7.0904625298
  H         5.7048116915       10.8865274425        8.1108145201
  H         6.5003898794        7.2332782948       11.1703823780
  H         7.8208793533        6.9428937074       10.7641066114
  H        10.6067427868        4.4342474663        5.0184074358
  H        10.4190273555        3.6513721662        6.3783153061
  H        -1.5991661786        1.2756410620       -2.0358667444
  H        -0.2377901993        2.0721549430       -1.9692703139
  H         3.8385982122        2.7264538375        0.6752655147
