65
 i =        4, time =        2.000, E =     -1121.1908639455
  O        10.6048701093        9.4459046020        5.6600417614
  O         6.0217158499        5.4230803942        2.8922707201
  O         3.2259050392        9.8891509709        1.1427893296
  O         4.7875648783        7.1886514298        1.1244290881
  O         6.2884966437        3.9718680597       -0.0426518307
  O         9.7509167771        7.7941336141       -2.0719334044
  O         7.5252847388        8.7496597004        8.4015440888
  O         9.4766920231        6.1187718051        0.7178403033
  O         7.8150811467       -2.2853579574        5.0105708216
  O         7.8705080648       12.9635957163        7.8977260562
  O         3.3493551294        8.2767375504        3.5727287324
  O         5.3823597719       15.2485185375        7.9443213278
  O        -3.0220276494       -0.2417947359       15.1572958164
  O        10.6539667663       13.6778783447        4.3846225408
  O         2.6168151180        6.4148564873       11.7765480513
  O         7.6042749933       10.6542980776       -1.4036531898
  O        17.6432844947       10.2379379778        2.5202338471
  O         1.8288156773       -0.5392433388       -2.9991521562
  O         6.2467751508        1.2472824668       10.2193123373
  O        -0.9428122482       14.0605681232       -5.0353236493
  O        13.5978586461       15.4676381485        6.2703348037
  O         3.9311753416       13.1333849798        0.3467083280
  O        12.9047192065       -2.6108261342        4.1842096400
  O         7.2540563667       11.8804665145        1.0736694668
  O         3.8646448276        3.6795921842        0.3410486123
  O         5.6004863728        7.7313641153        5.0454293050
  O        -0.0668066917       18.3103198695        8.5355081371
  O        13.2746777618       20.3911568522       10.4907624835
  O         7.9670652769       16.0431724216       -3.1053012777
  O         4.1909299843        3.5718725938        4.4433825425
  O        13.0134392717       -0.8758908089        6.3520155941
  O         9.7979941026        7.1422563960        7.0446334945
  O        11.8601911217        3.4544145753        3.0575829178
  O         8.5130403118        6.4029208555        3.6497057516
  O         3.8444435832        5.5265644716        6.9835068742
  O        -1.7317929258        4.8461820185       -1.5065757384
  O         7.6781240653        8.3979885946        1.8053323122
  O        16.3787430285       10.4925981697        5.1615258483
  O         6.6730217495       13.4075511265        4.5944299593
  O        10.1281768254       -2.3508217618        0.4770815170
  O        14.9786533329        5.0664413261        2.5106416437
  O        14.0894684031       13.8989368658        2.6589514125
  O         4.8015421277        8.9115539237       10.6392654713
  O        10.2497860708       -0.6811619178       10.4342421899
  O         0.9165345113        4.2966944908        0.1284229781
  O         7.0020808032        6.1604758587        7.4807433233
  O         1.6954041595        1.6692732765       -1.5453704206
  O         4.3194366451        8.1652640134        7.7814915190
  O        13.2204876554       10.6727981292       -0.3212872642
  O         1.6376904266       18.6117699657        5.5910024546
  O         7.1761935957       14.6367159071        1.7455972215
  O        12.2698554733       11.3443832520        2.3176484063
  O        -0.4462133739       -5.8899655143        3.7392337535
  O         2.9992448132        4.0554129908        9.9961665394
  O         7.0233557551        3.6758693865        5.8806559645
  O         9.6679911899       10.9807139867        7.6723662540
  O         4.3104473121       -0.9481877647        9.4497514016
  O         1.4558479865        8.6719779023       -4.6306238622
  O        15.8260594392       13.8533177196        6.4877723412
  O        11.6909856782        7.7324641575       13.4380986281
  O         9.8899225700        3.2370758253        0.9461964893
  O         6.1131282766       10.8607594538        7.1746775236
  O         7.1224599011        6.5310265575       11.2974701617
  O        10.0857938726        4.4019116767        5.8043509023
  O        -1.1966196866        2.1932047383       -2.1306839015
