     196
 i =        0, time =        0.000, E =     -1121.2013273676
  H        11.0731207896        9.4347968624        4.7877057049
  O        10.6007664012        9.4477266610        5.6660104812
  H        10.4300353723        8.5964318497        6.0550577382
  H         5.8659716211        4.5322103955        3.1756406262
  O         6.0070988625        5.4293850079        2.8901350946
  H         6.9016426388        5.6890454536        3.1677945315
  H         2.5054759405       10.2352525890        0.5553747484
  O         3.2390935592        9.8990433961        1.1511086363
  H         2.7057007755        9.2939343535        1.6428599354
  H         5.2580725500        6.4771020007        1.6223233053
  O         4.7918791584        7.1739757025        1.1302053837
  H         4.7562687277        7.8764268384        1.8149520618
  H         6.6603718270        4.8585491049       -0.0944625760
  O         6.2958149233        3.9751711006       -0.0482199475
  H         6.7131444348        3.2718683639        0.5829986305
  H         9.0559877145        8.2574752133       -2.6267846783
  O         9.7528525260        7.8067036885       -2.0809028418
  H         9.7595567252        8.3665395712       -1.2989551299
  H         6.8155118819        9.1722716077       -3.2596881067
  O         7.5314500440        8.7436389138        8.3974271856
  H         7.0439323552        7.9346586826        8.0978512591
  H         9.1262119492        5.9597122423        1.6539699805
  O         9.4654134522        6.1189421035        0.7205348798
  H         9.6306411176        5.2112288705        0.4195930062
  H         8.7438603153       -2.4476528387        5.2429805479
  O         7.8040964582       -2.2930137705        4.9992285626
  H         7.3988871570       -2.2638246154        5.9010616799
  H         8.2231393248       13.8560359301        8.0506463191
  O         7.8861712810       12.9650392822        7.8924891287
  H         8.6600987964       12.4501880580        7.6235997429
  H         4.1083745922        8.4891750359        4.1579817934
  O         3.3560079450        8.2734480723        3.5634376137
  H         2.9396325645        7.5576648814        4.1210563483
  H         4.8898915140       16.0919787874        8.1525587930
  O         5.3695120471       15.2434283812        7.9478389514
  H         5.9482420624       15.5077905872        7.2386259337
  H        -3.5838886159       -0.4492870863       14.3914627636
  O        -3.0180014799       -0.2554260079       15.1514261538
  H        -3.3904541045       -0.6976450178       15.9764214197
  H        10.0123522072       13.0818153735        3.9813213151
  O        10.6526652604       13.6774343758        4.4001622134
  H        10.5533725780       13.7128651330        5.3359758910
  H         2.0726687190        5.6949418053       12.2365135585
  O         2.6168715152        6.4225104065       11.7779966124
  H         3.3276814979        6.6309847502        0.2504120095
  H         8.5011623684       11.0077270865       10.4754857311
  O         7.5990573250       10.6531004098       -1.3861983427
  H         7.8736577428        9.8450384533       -0.9025384918
  H        16.8934169288       10.4100707303        1.9276598129
  O        17.6376737415       10.2430048390        2.5191110163
  H        17.2554303118       10.3903485276        3.3836793661
  H         2.8443942922       -0.6183653236       -2.9822385525
  O         1.8240388545       -0.5559710232       -3.0062941742
  H         1.6387459323       -0.6127189177       -3.9667353047
  H         7.0002095454        0.9650059037        9.5581283976
  O         6.2530133587        1.2565953890       10.2233897768
  H         5.7969118661        1.8490796360        9.6034826095
  H        -1.1888952909       14.1241258647       -4.1291216854
  O        -0.9449651467       14.0621952135       -5.0452485647
  H        -0.0033646858       14.3948992776       -5.0962230201
  H        14.3999190222       14.9262505491        6.4260087857
  O        13.5951262277       15.4783594938        6.2700559711
  H        13.8132416049       16.3739928705        6.5072312851
  H         4.8251556758       13.2103156027       -0.1357181767
  O         3.9368824556       13.1265940890        0.3580906761
  H         3.1886777944       13.3464715534       -0.2295508680
  H        12.5982395608       -2.0494290165        3.4155318469
  O        12.8955862543       -2.6161228826        4.1707811941
  H        13.8359953736       -2.8024489463        4.0477841927
  H         6.5738828979       11.2875735136        1.5493952702
  O         7.2491390447       11.8743085116        1.0557226728
  H         7.3553421564       11.4227896917        0.1760553231
  H         5.2202042765        3.9266331780        0.0533689250
  O         3.8698293570        3.6694229831        0.3483984519
  H         3.5396180963        4.2548488772        1.0637580822
  H         6.5710758818        7.7552111806        5.1844445143
  O         5.6098396552        7.7467929844        5.0312401436
  H         5.4699372621        6.8353828978        4.6044650042
  H        -0.7490184146       18.8490266156        8.0850566000
  O        -0.0682357034       18.2935670331        8.5423878485
  H         0.5764527256       18.2700168540        7.7475302119
  H        14.0285282964       19.8700140481       10.8412213604
  O        13.2780879771       20.4064401525       10.4927563206
  H        12.7028194105       19.7240702316       10.0189871400
  H         7.2109218452       15.8158211285       -2.5494527936
  O         7.9713227440       16.0397798058       -3.1130294200
  H         8.6231249421       16.4023227203       -2.4812656481
  H         4.4056752929        3.7988171435        5.3832345667
  O         4.1786666460        3.5640453257        4.4519879222
  H         3.3958317195        2.9401302718        4.5550544735
  H        12.9459163656       -1.3722351310        5.5045161142
  O        13.0119590374       -0.8780024026        6.3517408921
  H        12.1976248722       -0.2444272701        6.4069085141
  H         9.7722394646        6.3398733343        6.4666757782
  O         9.8083910480        7.1410861533        7.0342580783
  H         8.8502667577        7.4146925285        7.1716835582
  H        12.7126954712        3.0021097080        3.0678294010
  O        11.8590293128        3.4481448380        3.0655131625
  H        11.2232390438        2.8790237725        3.6129813902
  H         9.4259876606        6.1104865228        3.4895313794
  O         8.5231756884        6.4114042866        3.6541220840
  H         8.4651807957        7.2337789802        3.1308372566
  H         3.0600270057        5.6058625350        6.4483363852
  O         3.8402620414        5.5299949169        6.9836412581
  H         4.0225839528        6.4823046214        7.2300177016
  H        -1.2939839247        4.3814476502       -2.2578487629
  O        -1.7389966856        4.8631887725       -1.5171370252
  H        -1.8248534935        5.7621472724       -1.8701631840
  H         7.1044740667        9.0121384169        2.3616375615
  O         7.6684200955        8.4016332286        1.7956014867
  H         7.1329388121        7.7126025512        1.3788709526
  H        15.5110707608       10.5393824680        5.5465348872
  O        16.4016769589       10.4993035969        5.1620116037
  H        16.9798054837       10.4261559924        5.9425438811
  H         5.7341496476       13.1865450374        4.6503985700
  O         6.6676454496       13.4099640295        4.6058000819
  H         7.0675088072       13.1150424857        3.7866500988
  H        10.8600203863       -2.9123010177        0.8524423027
  O        10.1287398367       -2.3556479017        0.4919090987
  H         9.4072847134       -2.5831624360        1.0866937128
  H        15.1731466719        6.0213900494        2.4894162038
  O        14.9802557769        5.0761959517        2.5072563643
  H        15.3975650458        4.6955588435        3.3409488942
  H        13.4413918883       13.2692751878        2.2389056150
  O        14.0969569403       13.8976729701        2.6649697973
  H        14.9384749360       13.7331484348        2.1959859520
  H         4.5485798485        8.0895277647       10.0738752275
  O         4.7988585701        8.9183142722       10.6405058913
  H         4.5208010591        8.6623030574       11.5321820687
  H        10.4573608411       -1.2117689992        9.6101673465
  O        10.2596231821       -0.6914364765       10.4341505922
  H        10.3595678402       -1.3079191041       11.1962772043
  H         0.2217309373        4.4975449388       -0.5214927759
  O         0.9205419957        4.2887843922        0.1195422411
  H         0.4254203457        4.2341889253       13.1413624226
  H         7.3309706816        5.3535932517        7.9865513637
  O         7.0037578854        6.1561218083        7.4805303751
  H         6.3115020479        5.8378737355        6.8895435671
  H         2.0029133787        1.0768716982       -2.3172177636
  O         1.6804202060        1.6630194399       -1.5506874931
  H         2.1642761215        2.5514158910       -1.7958631231
  H         3.5722228993        8.6237078765        7.4413047103
  O         4.3035634453        8.1618895393        7.7833529154
  H         4.8648021715        8.2590408425        6.9602334217
  H        13.1453704297        9.8624323203       -0.8815498958
  O        13.2289537682       10.6737804948       -0.3178034642
  H        13.2656278822       11.4089510730       -0.9435899448
  H         1.5780478624       19.4220310631        6.0772316386
  O         1.6332633688       18.6176975968        5.5841482676
  H         0.8397689278       18.5674353235        5.0108310884
  H         7.0422198937       13.6596929592        1.5075076820
  O         7.1672376732       14.6327751554        1.7449921438
  H         8.1696939544       14.7206345911        1.6594655705
  H        11.2860917331       11.5356240684        2.2793745845
  O        12.2768044245       11.3548402964        2.3039575691
  H        12.5444826982       11.0769022277        1.3962156699
  H        -0.3325209014       -5.3940652819        2.8988289805
  O        -0.4395360787       -5.8770613882        3.7407109252
  H        -0.2789309148       -6.8005531253        3.4659456645
  H         2.6825057224        4.6231024643        9.2535758012
  O         2.9797676673        4.0554272620        9.9899749764
  H         3.1554404203        4.6799564972       10.7182794049
  H         7.9789674516        3.8688072442        5.7989504308
  O         7.0330461258        3.6700993536        5.8773492610
  H         6.9995522692        2.7403193029        5.4879285016
  H        10.1834826004       10.6822186116        6.8591489460
  O         9.6597755644       10.9836722063        7.6739619254
  H         8.9690613635       10.2363456229        7.8211778825
  H         4.6424999658       -0.1392381750        9.9607566548
  O         4.3200531729       -0.9427236024        9.4504244240
  H         4.3925562179       -1.7458261882       10.0286261684
  H         1.5642032781        8.5877994733       -3.6524216376
  O         1.4617085617        8.6476313410       -4.6300238960
  H         0.9459996308        9.5469674522       -4.7383164438
  H        16.3907779214       14.2738799197        7.2294799255
  O        15.8355113200       13.8674626906        6.4889973551
  H        15.5021401887       12.9904241786        6.7686143535
  H        12.3479399670        7.4574928842       12.7492094166
  O        11.6980591358        7.7272019366       13.4481403795
  H        10.8961285510        7.1958400076       13.1562899946
  H        10.6182181728        3.4740299888        1.5022945216
  O         9.8833546775        3.2384136124        0.9501734996
  H        10.2092139788        2.6651142379        0.2357084141
  H         6.4524112985       11.7322370969        7.0996585049
  O         6.1123306424       10.8605666701        7.1772234407
  H         5.7189132062       10.8664108618        8.1112002228
  H         6.4390938390        7.2509945328       11.1719692825
  O         7.1119606075        6.5376738315       11.2870548690
  H         7.7937666650        6.9340188712       10.7605369101
  H        10.6102470202        4.4315256359        4.9991050920
  O        10.0762677343        4.3917907298        5.8136950113
  H        10.4252877746        3.6289978303        6.3823970817
  H        -1.5851447171        1.2689317605       -2.0457183011
  O        -1.1977826996        2.1883810101       -2.1104685522
  H        -0.1974776064        2.0686433753       -1.9977648832
  H         3.8448988828        2.7226093334        0.6987634803
     196
 i =        2, time =        1.000, E =     -1121.1978425502
  H        11.0975616012        9.4156961280        4.7905764883
  O        10.6027896944        9.4463337201        5.6634246873
  H        10.4240458875        8.5770498047        6.0400627390
  H         5.8985559343        4.5043089607        3.1895595426
  O         6.0144515771        5.4261964209        2.8911139572
  H         6.9146244163        5.6764048951        3.1918712314
  H         2.5086821735       10.2267986278        0.5688872469
  O         3.2324501020        9.8939960347        1.1473277597
  H         2.6853373175        9.3038303564        1.6347830984
  H         5.2562192506        6.5057932285        1.6138626583
  O         4.7897984184        7.1808258527        1.1272792584
  H         4.7664512202        7.8713075538        1.8345911507
  H         6.6635801716        4.8702152822       -0.1138260995
  O         6.2923083559        3.9735763058       -0.0449734103
  H         6.7133946512        3.3020568450        0.5888216905
  H         9.0897607978        8.2656848718       -2.6225073175
  O         9.7519904578        7.8003175290       -2.0765043120
  H         9.7559316418        8.3741488202       -1.2886771793
  H         6.8255396240        9.1760733838       -3.2608126220
  O         7.5283004444        8.7468288091        8.3994120792
  H         7.0560954759        7.9309728949        8.1321489392
  H         9.1084375686        5.9616090614        1.6405091553
  O         9.4711647997        6.1187748975        0.7186124116
  H         9.5855007129        5.2046504911        0.4206089637
  H         8.7282471256       -2.4350173792        5.2318561466
  O         7.8099110182       -2.2892029161        5.0047458802
  H         7.4068140038       -2.2873690717        5.9069018117
  H         8.2285882747       13.8595140773        8.0509176290
  O         7.8785984879       12.9639644178        7.8949728588
  H         8.6421109919       12.4468428490        7.6175013912
  H         4.1069615248        8.5127147258        4.1717799901
  O         3.3526672169        8.2752508355        3.5678043848
  H         2.9730105876        7.5778192768        4.1388562845
  H         4.8959619887       16.0732248428        8.1406950387
  O         5.3765033841       15.2461014451        7.9454358722
  H         5.9359669924       15.4912689673        7.2343967604
  H        -3.6157381522       -0.4356290644       14.3822349815
  O        -3.0200838736       -0.2484504045       15.1540249520
  H        -3.3898547309       -0.7017272344       15.9693177724
  H         9.9863828427       13.0807868934        3.9832033022
  O        10.6532759875       13.6776619453        4.3927864839
  H        10.5432131763       13.6945869706        5.3349179080
  H         2.0642902542        5.6901972282       12.2263761608
  O         2.6173346207        6.4191003090       11.7773963184
  H         3.3041265313        6.6052757502        0.2524021312
  H         8.4937911224       10.9994909400       10.4602051975
  O         7.6015310138       10.6536895215       -1.3949487849
  H         7.8804488340        9.8693744186       -0.9032063651
  H        16.8643066416       10.4045501162        1.9196079842
  O        17.6403721316       10.2404763688        2.5200186645
  H        17.2637360208       10.3904439859        3.3887676607
  H         2.8588167329       -0.6378985392       -2.9620932954
  O         1.8261487404       -0.5475939556       -3.0025252560
  H         1.6383838207       -0.6108754417       -3.9619933773
  H         6.9683296845        0.9600273793        9.5369949535
  O         6.2495671360        1.2520815496       10.2218096303
  H         5.8153066872        1.8478765839        9.5943118287
  H        -1.1601249393       14.1165782815       -4.0996864761
  O        -0.9440979526       14.0613084100       -5.0400881346
  H        -0.0014966456       14.3873438080       -5.1029323038
  H        14.3925001492       14.9375243453        6.4443734207
  O        13.5966942198       15.4730881854        6.2702801679
  H        13.8104201533       16.3799742363        6.5018394398
  H         4.8329943064       13.1956044985       -0.1202557335
  O         3.9332536742       13.1300358514        0.3521592216
  H         3.1889530349       13.3320202274       -0.2119748581
  H        12.5880464620       -2.0356726527        3.4350416223
  O        12.9002642691       -2.6135074142        4.1773726150
  H        13.8463399468       -2.7996542081        4.0488702389
  H         6.5929284873       11.2952962143        1.5097800658
  O         7.2516118885       11.8775753168        1.0649363479
  H         7.3536429881       11.4096863725        0.1672413857
  H         5.2287206694        3.8974544327        0.0658961924
  O         3.8669813377        3.6747102174        0.3447645170
  H         3.5235792347        4.2452656771        1.0595585048
  H         6.5590433575        7.7258516900        5.1775443873
  O         5.6053153799        7.7396195545        5.0385138938
  H         5.4604885583        6.8427722952        4.5832624942
  H        -0.7446160805       18.8427171855        8.0685103872
  O        -0.0675653780       18.3018197196        8.5392425971
  H         0.5645963415       18.2831285677        7.7866757844
  H        13.9966026732       19.8745303762       10.8264092709
  O        13.2768169209       20.3985575232       10.4920489073
  H        12.6943624457       19.7463414903       10.0351289801
  H         7.1937419178       15.8084540935       -2.5585726421
  O         7.9692564093       16.0414136290       -3.1092336687
  H         8.6215945315       16.4277715979       -2.4835895483
  H         4.4187020914        3.7849544668        5.3894890202
  O         4.1850469606        3.5681105686        4.4474615741
  H         3.3966568362        2.9528195111        4.5503266145
  H        12.9334831491       -1.3734316109        5.4863553677
  O        13.0131331249       -0.8773110092        6.3519131510
  H        12.2001911605       -0.2507525485        6.3729008670
  H         9.7656395758        6.3502704388        6.4515612398
  O         9.8033272649        7.1416468604        7.0395245664
  H         8.8622726078        7.4147359338        7.1670466497
  H        12.7283827413        3.0080087079        3.0439962476
  O        11.8598883059        3.4509779133        3.0615609930
  H        11.2257311349        2.8876793596        3.6109445892
  H         9.4281745153        6.0940638555        3.4952295931
  O         8.5180943870        6.4073038477        3.6519704243
  H         8.4818306742        7.2231413638        3.1239057961
  H         3.0591715584        5.5883871105        6.4373755286
  O         3.8419601723        5.5280997293        6.9832695164
  H         4.0669575254        6.4937478558        7.2308332762
  H        -1.3232926461        4.3897242480       -2.2322998725
  O        -1.7352069213        4.8541712131       -1.5118559299
  H        -1.8514214916        5.7794966174       -1.8723146223
  H         7.1018572881        9.0076514543        2.3703240222
  O         7.6731999815        8.3995798594        1.8002854388
  H         7.1489103225        7.6915709641        1.3701623704
  H        15.5322088187       10.5626579383        5.5586833463
  O        16.3898423554       10.4960120309        5.1616531511
  H        16.9882201524       10.4241061893        5.9589751833
  H         5.6962345081       13.2039222236        4.6127998925
  O         6.6706529359       13.4087977361        4.5998616603
  H         7.0666288198       13.0969478778        3.7785468175
  H        10.8723661957       -2.8981902949        0.8551662482
  O        10.1282923876       -2.3532019689        0.4844902003
  H         9.4266093361       -2.5986840539        1.0930794459
  H        15.1807657347        6.0139407489        2.5008721037
  O        14.9794456390        5.0714758671        2.5088801746
  H        15.3987845357        4.6812407368        3.3347889311
  H        13.4521135730       13.3005105075        2.2299678281
  O        14.0930451582       13.8982451508        2.6620091035
  H        14.9554928701       13.7245508667        2.2162286976
  H         4.5344609418        8.0762441114       10.0604819920
  O         4.8003330092        8.9157841076       10.6405630753
  H         4.5374468198        8.6381861191       11.5180412267
  H        10.4486845366       -1.2283606021        9.6238804270
  O        10.2547069757       -0.6860456607       10.4343297591
  H        10.3585183287       -1.3130682652       11.1959456175
  H         0.2522019182        4.5150285577       -0.5402638458
  O         0.9186023380        4.2926977378        0.1236516500
  H         0.4247400174        4.2373391630       13.1332894217
  H         7.3131955159        5.3470831130        8.0000816849
  O         7.0026607619        6.1583272103        7.4802899648
  H         6.3188369514        5.8616338857        6.8903290858
  H         1.9958711787        1.0817781186       -2.3084669125
  O         1.6874736993        1.6658162421       -1.5477932140
  H         2.1693593338        2.5496913929       -1.7574773979
  H         3.5556796448        8.6362011133        7.4327335430
  O         4.3110038341        8.1635472705        7.7829186003
  H         4.8768479943        8.2540429433        6.9461234108
  H        13.1191757781        9.8547823800       -0.8926246305
  O        13.2248648365       10.6735420461       -0.3195655471
  H        13.2660029204       11.4127666819       -0.9397728712
  H         1.5492773590       19.4172278814        6.0700849624
  O         1.6354397014       18.6151412580        5.5878139541
  H         0.8401358954       18.5571967977        5.0063215207
  H         7.0577345215       13.6877878970        1.4729571354
  O         7.1715147796       14.6349294463        1.7454087663
  H         8.1581988594       14.7050451574        1.6556414549
  H        11.2725682406       11.5107766599        2.2701703329
  O        12.2737888330       11.3495014529        2.3107915378
  H        12.5343761621       11.0427424458        1.4175697578
  H        -0.3317857195       -5.3693044052        2.8860138612
  O        -0.4428653768       -5.8832335177        3.7402571346
  H        -0.2778078854       -6.8439384341        3.4610973895
  H         2.6910904527        4.6055606203        9.2562150759
  O         2.9893738361        4.0553161755        9.9930845997
  H         3.1438621001        4.6936821262       10.7364901818
  H         7.9801058097        3.8831314764        5.7865286977
  O         7.0281650133        3.6733427663        5.8791913474
  H         6.9762309397        2.7411637001        5.4702813903
  H        10.1594541232       10.6640094162        6.8401641464
  O         9.6640401966       10.9826898769        7.6733383087
  H         8.9770076379       10.2410796667        7.8222107522
  H         4.6351595155       -0.1422024401        9.9395185627
  O         4.3150992220       -0.9457709368        9.4501402222
  H         4.3995566861       -1.7547856062       10.0110255544
  H         1.5384166809        8.5883992979       -3.6339368360
  O         1.4589103721        8.6593909870       -4.6306599811
  H         0.9472260027        9.5305192655       -4.7225279671
  H        16.4119352826       14.2862711371        7.2098894917
  O        15.8307339498       13.8602663963        6.4882880104
  H        15.5362292668       12.9958777044        6.7907852759
  H        12.3485695329        7.4765459638       12.7523351474
  O        11.6945255140        7.7299974849       13.4432636021
  H        10.8881363580        7.2087922692       13.1614535018
  H        10.6126263989        3.4853543541        1.4963086951
  O         9.8872500955        3.2378812823        0.9484184427
  H        10.2154798461        2.6678056458        0.2295106995
  H         6.4292550106       11.7301656500        7.0904625298
  O         6.1132598132       10.8613276807        7.1754013308
  H         5.7048116915       10.8865274425        8.1108145201
  H         6.5003898794        7.2332782948       11.1703823780
  O         7.1170235203        6.5344671686       11.2923187039
  H         7.8208793533        6.9428937074       10.7641066114
  H        10.6067427868        4.4342474663        5.0184074358
  O        10.0813048295        4.3969204066        5.8085889512
  H        10.4190273555        3.6513721662        6.3783153061
  H        -1.5991661786        1.2756410620       -2.0358667444
  O        -1.1969210736        2.1910618507       -2.1205818315
  H        -0.2377901993        2.0721549430       -1.9692703139
  H         3.8385982122        2.7264538375        0.6752655147
     196
 i =        4, time =        2.000, E =     -1121.1908639455
  H        11.1188382367        9.3908374035        4.8079350572
  O        10.6048701093        9.4459046020        5.6600417614
  H        10.4199064072        8.5464444451        6.0256744788
  H         5.9298563822        4.4768185028        3.2035935427
  O         6.0217158499        5.4230803942        2.8922707201
  H         6.9299463160        5.6622782770        3.2160626423
  H         2.5147695987       10.2267217379        0.5760326332
  O         3.2259050392        9.8891509709        1.1427893296
  H         2.6626843689        9.3010182385        1.6413539132
  H         5.2600930118        6.5196226538        1.6108262127
  O         4.7875648783        7.1886514298        1.1244290881
  H         4.7720200404        7.8664653018        1.8490291614
  H         6.6697411693        4.8876848124       -0.1328813764
  O         6.2884966437        3.9718680597       -0.0426518307
  H         6.7199218001        3.3310000706        0.6049442376
  H         9.1224056948        8.2723125348       -2.6240273814
  O         9.7509167771        7.7941336141       -2.0719334044
  H         9.7561815572        8.3801899351       -1.2747360313
  H         6.8338465591        9.1881392507       -3.2567334592
  O         7.5252847388        8.7496597004        8.4015440888
  H         7.0713316345        7.9213450724        8.1639028233
  H         9.0927333943        5.9669550051        1.6151423844
  O         9.4766920231        6.1187718051        0.7178403033
  H         9.5436059525        5.1931812330        0.4169062016
  H         8.7248752399       -2.4252090578        5.2205303880
  O         7.8150811467       -2.2853579574        5.0105708216
  H         7.4130628930       -2.3072391734        5.9077584925
  H         8.2325506073       13.8649777392        8.0494876218
  O         7.8705080648       12.9635957163        7.8977260562
  H         8.6316723255       12.4350301911        7.6109833868
  H         4.1036908729        8.5406338728        4.1790008911
  O         3.3493551294        8.2767375504        3.5727287324
  H         3.0015221978        7.5955543683        4.1543652342
  H         4.8999100866       16.0538665909        8.1299216838
  O         5.3823597719       15.2485185375        7.9443213278
  H         5.9434167450       15.4796777720        7.2126280900
  H        -3.6490104184       -0.4206362852       14.3747055108
  O        -3.0220276494       -0.2417947359       15.1572958164
  H        -3.3889501770       -0.7042771543       15.9505454762
  H         9.9615364417       13.0823869837        3.9845402405
  O        10.6539667663       13.6778783447        4.3846225408
  H        10.5311292627       13.6761613938        5.3463490939
  H         2.0577312887        5.6916162347       12.2092193392
  O         2.6168151180        6.4148564873       11.7765480513
  H         3.2936259132        6.5851806755        0.2644105908
  H         8.4831629125       10.9939086427       10.4457321877
  O         7.6042749933       10.6542980776       -1.4036531898
  H         7.8861631680        9.8894840856       -0.9029837861
  H        16.8354977316       10.3953320660        1.9133692333
  O        17.6432844947       10.2379379778        2.5202338471
  H        17.2702661073       10.3927584866        3.4036835746
  H         2.8615610640       -0.6614189737       -2.9412032858
  O         1.8288156773       -0.5392433388       -2.9991521562
  H         1.6357166507       -0.6086944393       -3.9556225434
  H         6.9279841952        0.9533572073        9.5296091570
  O         6.2467751508        1.2472824668       10.2193123373
  H         5.8277439142        1.8527237878        9.5850313590
  H        -1.1321156676       14.1094637148       -4.0627500056
  O        -0.9428122482       14.0605681232       -5.0353236493
  H        -0.0058041107       14.3803089747       -5.1110355175
  H        14.3898913576       14.9462500420        6.4635903173
  O        13.5978586461       15.4676381485        6.2703348037
  H        13.8074203447       16.3893208342        6.4972180884
  H         4.8230992587       13.1793211275       -0.1018946059
  O         3.9311753416       13.1333849798        0.3467083280
  H         3.1820323901       13.3185284402       -0.2083164394